 Entering Gaussian System, Link 0=gdv
 Input=test002.gjf
 Output=test002.log
 Initial command:
 /Users/hhratchian/.gaussian/gdv-current/gdv/l1.exe "/Users/hhratchian/.scratch/Gau-16439.inp" -scrdir="/Users/hhratchian/.scratch/"
 Entering Link 1 = /Users/hhratchian/.gaussian/gdv-current/gdv/l1.exe PID=     16440.
  
 Copyright (c) 1988,1990,1992,1993,1995,1998,2003,2009,2016,
            Gaussian, Inc.  All Rights Reserved.
  
 This is the private, development version of
 the Gaussian(R) DV system of programs. It is based on
 the Gaussian(R) 09 system (copyright 2009, Gaussian, Inc.),
 the Gaussian(R) 03 system (copyright 2003, Gaussian, Inc.),
 the Gaussian(R) 98 system (copyright 1998, Gaussian, Inc.),
 the Gaussian(R) 94 system (copyright 1995, Gaussian, Inc.),
 the Gaussian 92(TM) system (copyright 1992, Gaussian, Inc.),
 the Gaussian 90(TM) system (copyright 1990, Gaussian, Inc.),
 the Gaussian 88(TM) system (copyright 1988, Gaussian, Inc.),
 the Gaussian 86(TM) system (copyright 1986, Carnegie Mellon
 University), and the Gaussian 82(TM) system (copyright 1983,
 Carnegie Mellon University). Gaussian is a federally registered
 trademark of Gaussian, Inc.
  
 This software contains proprietary and confidential information,
 including trade secrets, belonging to Gaussian, Inc.
  
 This software is provided under written license and may be
 used, copied, transmitted, or stored only in accord with that
 written license.
  
 The following legend is applicable only to US Government
 contracts under FAR:
  
                    RESTRICTED RIGHTS LEGEND
  
 Use, reproduction and disclosure by the US Government is
 subject to restrictions as set forth in subparagraphs (a)
 and (c) of the Commercial Computer Software - Restricted
 Rights clause in FAR 52.227-19.
  
 Gaussian, Inc.
 340 Quinnipiac St., Bldg. 40, Wallingford CT 06492
  
  
 ---------------------------------------------------------------
 Warning -- This program may not be used in any manner that
 competes with the business of Gaussian, Inc. or will provide
 assistance to any competitor of Gaussian, Inc.  The licensee
 of this program is prohibited from giving any competitor of
 Gaussian, Inc. access to this program.  By using this program,
 the user acknowledges that Gaussian, Inc. is engaged in the
 business of creating and licensing software in the field of
 computational chemistry and represents and warrants to the
 licensee that it is not a competitor of Gaussian, Inc. and that
 it will not use this program in any manner prohibited above.
 ---------------------------------------------------------------
  

 Cite this work as:
 Gaussian Development Version, Revision I.09,
 M. J. Frisch, G. W. Trucks, H. B. Schlegel, G. E. Scuseria, 
 M. A. Robb, J. R. Cheeseman, G. Scalmani, V. Barone, 
 G. A. Petersson, H. Nakatsuji, X. Li, M. Caricato, A. Marenich, 
 J. Bloino, B. G. Janesko, R. Gomperts, B. Mennucci, H. P. Hratchian, 
 J. V. Ortiz, A. F. Izmaylov, J. L. Sonnenberg, D. Williams-Young, 
 F. Ding, F. Lipparini, F. Egidi, J. Goings, B. Peng, A. Petrone, 
 T. Henderson, D. Ranasinghe, V. G. Zakrzewski, J. Gao, N. Rega, 
 G. Zheng, W. Liang, M. Hada, M. Ehara, K. Toyota, R. Fukuda, 
 J. Hasegawa, M. Ishida, T. Nakajima, Y. Honda, O. Kitao, H. Nakai, 
 T. Vreven, K. Throssell, J. A. Montgomery, Jr., J. E. Peralta, 
 F. Ogliaro, M. Bearpark, J. J. Heyd, E. Brothers, K. N. Kudin, 
 V. N. Staroverov, T. Keith, R. Kobayashi, J. Normand, 
 K. Raghavachari, A. Rendell, J. C. Burant, S. S. Iyengar, J. Tomasi, 
 M. Cossi, J. M. Millam, M. Klene, C. Adamo, R. Cammi, 
 J. W. Ochterski, R. L. Martin, K. Morokuma, O. Farkas, 
 J. B. Foresman, and D. J. Fox, Gaussian, Inc., Wallingford CT, 2016.
 
 ******************************************
 Gaussian DV:  EM64M-GDVRevI.09  1-Aug-2016
                12-Jun-2019 
 ******************************************
 %chk=test002
 ---------------------------------------------
 #p test geom=modela hf pop=full output=matrix
 ---------------------------------------------
 1/29=4,38=1,172=1/1;
 2/12=2,17=6,18=5,40=1/2;
 3/11=9,25=1,30=1/1,2,3,8;
 4//1;
 5/5=2,38=5/2;
 6/7=3,28=1/1;
 99/5=1,6=100000,9=1/99;
 Leave Link    1 at Wed Jun 12 20:28:57 2019, MaxMem=           0 cpu:               0.0 elap:               0.2
 (Enter /Users/hhratchian/.gaussian/gdv-current/gdv/l101.exe)
 --------------------------------------
 test002: HF/STO-3G calculation of H2O.
 --------------------------------------
 Charge =  0 Multiplicity = 1
 Model A used to generate z-matrix:
 Short formula matrix:
   Atom   Symbol  Geom  Angle Array F
    1        O    Bent         2   3
    2        H                 1   0
    3        H                 1   0
 Generated Z-Matrix:
 O
 H,1,R2
 H,1,R2,2,A3
      Variables:
 R2=0.96
 A3=109.47122063
     1 tetrahedral angles replaced.
 ITRead=  0  0  0
 MicOpt= -1 -1 -1
 NAtoms=      3 NQM=        3 NQMF=       0 NMMI=      0 NMMIF=      0
                NMic=       0 NMicF=      0.
    1 tetrahedral angles replaced.
                    Isotopes and Nuclear Properties:
 (Nuclear quadrupole moments (NQMom) in fm**2, nuclear magnetic moments (NMagM)
  in nuclear magnetons)

  Atom         1           2           3
 IAtWgt=          16           1           1
 AtmWgt=  15.9949146   1.0078250   1.0078250
 NucSpn=           0           1           1
 AtZEff=   0.0000000   0.0000000   0.0000000
 NQMom=    0.0000000   0.0000000   0.0000000
 NMagM=    0.0000000   2.7928460   2.7928460
 AtZNuc=   8.0000000   1.0000000   1.0000000
 Leave Link  101 at Wed Jun 12 20:28:57 2019, MaxMem=   100000000 cpu:               0.2 elap:               0.2
 (Enter /Users/hhratchian/.gaussian/gdv-current/gdv/l202.exe)
                          Input orientation:                          
 ---------------------------------------------------------------------
 Center     Atomic      Atomic             Coordinates (Angstroms)
 Number     Number       Type             X           Y           Z
 ---------------------------------------------------------------------
      1          8           0        0.000000    0.000000    0.000000
      2          1           0        0.000000    0.000000    0.960000
      3          1           0        0.905097    0.000000   -0.320000
 ---------------------------------------------------------------------
                    Distance matrix (angstroms):
                    1          2          3
     1  O    0.000000
     2  H    0.960000   0.000000
     3  H    0.960000   1.567673   0.000000
 Stoichiometry    H2O
 Framework group  C2V[C2(O),SGV(H2)]
 Deg. of freedom     2
 Full point group                 C2V     NOp   4
 Largest Abelian subgroup         C2V     NOp   4
 Largest concise Abelian subgroup C2      NOp   2
                         Standard orientation:                         
 ---------------------------------------------------------------------
 Center     Atomic      Atomic             Coordinates (Angstroms)
 Number     Number       Type             X           Y           Z
 ---------------------------------------------------------------------
      1          8           0        0.000000    0.000000    0.110851
      2          1           0        0.000000    0.783837   -0.443405
      3          1           0        0.000000   -0.783837   -0.443405
 ---------------------------------------------------------------------
 Rotational constants (GHZ):         919.0227301         408.0852087         282.5991554
 Leave Link  202 at Wed Jun 12 20:28:58 2019, MaxMem=   100000000 cpu:               0.0 elap:               0.0
 (Enter /Users/hhratchian/.gaussian/gdv-current/gdv/l301.exe)
 Standard basis: STO-3G (5D, 7F)
 Ernie: Thresh=  0.10000D-02 Tol=  0.10000D-05 Strict=F.
 There are     4 symmetry adapted cartesian basis functions of A1  symmetry.
 There are     0 symmetry adapted cartesian basis functions of A2  symmetry.
 There are     1 symmetry adapted cartesian basis functions of B1  symmetry.
 There are     2 symmetry adapted cartesian basis functions of B2  symmetry.
 There are     4 symmetry adapted basis functions of A1  symmetry.
 There are     0 symmetry adapted basis functions of A2  symmetry.
 There are     1 symmetry adapted basis functions of B1  symmetry.
 There are     2 symmetry adapted basis functions of B2  symmetry.
     7 basis functions,    21 primitive gaussians,     7 cartesian basis functions
     5 alpha electrons        5 beta electrons
       nuclear repulsion energy         9.1571759503 Hartrees.
 IExCor=    0 DFT=F Ex=HF Corr=None ExCW=0 ScaHFX=  1.000000
 ScaDFX=  1.000000  1.000000  1.000000  1.000000 ScalE2=  1.000000  1.000000
 IRadAn=      5 IRanWt=     -1 IRanGd=            0 ICorTp=0 IEmpDi=  4
 NAtoms=    3 NActive=    3 NUniq=    2 SFac= 2.25D+00 NAtFMM=   60 NAOKFM=F Big=F
 Integral buffers will be    131072 words long.
 Raffenetti 1 integral format.
 Two-electron integral symmetry is turned on.
 Leave Link  301 at Wed Jun 12 20:28:58 2019, MaxMem=   100000000 cpu:               0.0 elap:               0.0
 (Enter /Users/hhratchian/.gaussian/gdv-current/gdv/l302.exe)
 NPDir=0 NMtPBC=     1 NCelOv=     1 NCel=       1 NClECP=     1 NCelD=      1
         NCelK=      1 NCelE2=     1 NClLst=     1 CellRange=     0.0.
 One-electron integrals computed using PRISM.
 One-electron integral symmetry used in STVInt
 NBasis=     7 RedAO= T EigKep=  3.45D-01  NBF=     4     0     1     2
 NBsUse=     7 1.00D-06 EigRej= -1.00D+00 NBFU=     4     0     1     2
 Leave Link  302 at Wed Jun 12 20:28:58 2019, MaxMem=   100000000 cpu:               0.1 elap:               0.1
 (Enter /Users/hhratchian/.gaussian/gdv-current/gdv/l303.exe)
 DipDrv:  MaxL=1.
 Leave Link  303 at Wed Jun 12 20:28:58 2019, MaxMem=   100000000 cpu:               0.0 elap:               0.0
 (Enter /Users/hhratchian/.gaussian/gdv-current/gdv/l308.exe)
 Leave Link  308 at Wed Jun 12 20:28:58 2019, MaxMem=   100000000 cpu:               0.0 elap:               0.0
 (Enter /Users/hhratchian/.gaussian/gdv-current/gdv/l401.exe)
 ExpMin= 1.69D-01 ExpMax= 1.31D+02 ExpMxC= 1.31D+02 IAcc=3 IRadAn=         5 AccDes= 0.00D+00
 Harris functional with IExCor=  205 and IRadAn=       5 diagonalized for initial guess.
 HarFok:  IExCor=  205 AccDes= 0.00D+00 IRadAn=         5 IDoV= 1 UseB2=F ITyADJ=14
 ICtDFT=  3500011 ScaDFX=  1.000000  1.000000  1.000000  1.000000
 FoFCou: FMM=F IPFlag=           0 FMFlag=      100000 FMFlg1=           0
         NFxFlg=           0 DoJE=T BraDBF=F KetDBF=T FulRan=T
         wScrn=  0.000000 ICntrl=       500 IOpCl=  0 I1Cent=   200000004 NGrid=           0
         NMat0=    1 NMatS0=      1 NMatT0=    0 NMatD0=    1 NMtDS0=    0 NMtDT0=    0
 Petite list used in FoFCou.
 Harris En= -75.0356789550231    
 JPrj=0 DoOrth=F DoCkMO=F.
 Initial guess orbital symmetries:
       Occupied  (A1) (A1) (B2) (A1) (B1)
       Virtual   (A1) (B2)
 The electronic state of the initial guess is 1-A1.
 Leave Link  401 at Wed Jun 12 20:28:58 2019, MaxMem=   100000000 cpu:               0.1 elap:               0.1
 (Enter /Users/hhratchian/.gaussian/gdv-current/gdv/l502.exe)
 Keep R1 ints in memory in symmetry-blocked form, NReq=803110.
 FoFCou: FMM=F IPFlag=           0 FMFlag=           0 FMFlg1=           0
         NFxFlg=           0 DoJE=F BraDBF=F KetDBF=F FulRan=T
         wScrn=  0.000000 ICntrl=       600 IOpCl=  0 I1Cent=           0 NGrid=           0
         NMat0=    1 NMatS0=     28 NMatT0=    0 NMatD0=    1 NMtDS0=    0 NMtDT0=    0
 Petite list used in FoFCou.
 Closed shell SCF:
 Using DIIS extrapolation, IDIIS=  1040.
 NGot=   100000000 LenX=    99998141 LenY=    99997259
 Requested convergence on RMS density matrix=1.00D-08 within 128 cycles.
 Requested convergence on MAX density matrix=1.00D-06.
 Requested convergence on             energy=1.00D-06.
 No special actions if energy rises.

 Cycle   1  Pass 1  IDiag  1:
 E= -74.9079311176645    
 DIIS: error= 7.72D-02 at cycle   1 NSaved=   1.
 NSaved= 1 IEnMin= 1 EnMin= -74.9079311176645     IErMin= 1 ErrMin= 7.72D-02
 ErrMax= 7.72D-02  0.00D+00 EMaxC= 1.00D-01 BMatC= 3.93D-02 BMatP= 3.93D-02
 IDIUse=3 WtCom= 2.28D-01 WtEn= 7.72D-01
 Coeff-Com:  0.100D+01
 Coeff-En:   0.100D+01
 Coeff:      0.100D+01
 Gap=     0.880 Goal=   None    Shift=    0.000
 GapD=    0.880 DampG=2.000 DampE=0.500 DampFc=1.0000 IDamp=-1.
 RMSDP=4.02D-02 MaxDP=1.43D-01              OVMax= 0.00D+00

 Cycle   2  Pass 1  IDiag  1:
 E= -74.9603525981979     Delta-E=       -0.052421480533 Rises=F Damp=F
 DIIS: error= 6.28D-03 at cycle   2 NSaved=   2.
 NSaved= 2 IEnMin= 2 EnMin= -74.9603525981979     IErMin= 2 ErrMin= 6.28D-03
 ErrMax= 6.28D-03  0.00D+00 EMaxC= 1.00D-01 BMatC= 3.47D-04 BMatP= 3.93D-02
 IDIUse=3 WtCom= 9.37D-01 WtEn= 6.28D-02
 Coeff-Com:  0.501D-01 0.950D+00
 Coeff-En:   0.000D+00 0.100D+01
 Coeff:      0.470D-01 0.953D+00
 Gap=     0.980 Goal=   None    Shift=    0.000
 RMSDP=2.79D-03 MaxDP=1.15D-02 DE=-5.24D-02 OVMax= 0.00D+00

 Cycle   3  Pass 1  IDiag  1:
 E= -74.9607062406816     Delta-E=       -0.000353642484 Rises=F Damp=F
 DIIS: error= 1.15D-03 at cycle   3 NSaved=   3.
 NSaved= 3 IEnMin= 3 EnMin= -74.9607062406816     IErMin= 3 ErrMin= 1.15D-03
 ErrMax= 1.15D-03  0.00D+00 EMaxC= 1.00D-01 BMatC= 9.38D-06 BMatP= 3.47D-04
 IDIUse=3 WtCom= 9.89D-01 WtEn= 1.15D-02
 Coeff-Com: -0.105D-01-0.176D+00 0.119D+01
 Coeff-En:   0.000D+00 0.000D+00 0.100D+01
 Coeff:     -0.103D-01-0.174D+00 0.118D+01
 Gap=     0.980 Goal=   None    Shift=    0.000
 RMSDP=9.15D-04 MaxDP=3.95D-03 DE=-3.54D-04 OVMax= 0.00D+00

 Cycle   4  Pass 1  IDiag  1:
 E= -74.9607225837357     Delta-E=       -0.000016343054 Rises=F Damp=F
 DIIS: error= 1.85D-04 at cycle   4 NSaved=   4.
 NSaved= 4 IEnMin= 4 EnMin= -74.9607225837357     IErMin= 4 ErrMin= 1.85D-04
 ErrMax= 1.85D-04  0.00D+00 EMaxC= 1.00D-01 BMatC= 2.68D-07 BMatP= 9.38D-06
 IDIUse=3 WtCom= 9.98D-01 WtEn= 1.85D-03
 Coeff-Com:  0.150D-02 0.135D-01-0.231D+00 0.122D+01
 Coeff-En:   0.000D+00 0.000D+00 0.000D+00 0.100D+01
 Coeff:      0.150D-02 0.135D-01-0.230D+00 0.122D+01
 Gap=     0.980 Goal=   None    Shift=    0.000
 RMSDP=2.07D-04 MaxDP=8.20D-04 DE=-1.63D-05 OVMax= 0.00D+00

 Cycle   5  Pass 1  IDiag  1:
 E= -74.9607232314945     Delta-E=       -0.000000647759 Rises=F Damp=F
 DIIS: error= 3.41D-05 at cycle   5 NSaved=   5.
 NSaved= 5 IEnMin= 5 EnMin= -74.9607232314945     IErMin= 5 ErrMin= 3.41D-05
 ErrMax= 3.41D-05  0.00D+00 EMaxC= 1.00D-01 BMatC= 1.39D-08 BMatP= 2.68D-07
 IDIUse=1 WtCom= 1.00D+00 WtEn= 0.00D+00
 Coeff-Com: -0.628D-03-0.492D-02 0.124D+00-0.798D+00 0.168D+01
 Coeff:     -0.628D-03-0.492D-02 0.124D+00-0.798D+00 0.168D+01
 Gap=     0.980 Goal=   None    Shift=    0.000
 RMSDP=6.20D-05 MaxDP=1.89D-04 DE=-6.48D-07 OVMax= 0.00D+00

 Cycle   6  Pass 1  IDiag  1:
 E= -74.9607232750791     Delta-E=       -0.000000043585 Rises=F Damp=F
 DIIS: error= 2.05D-07 at cycle   6 NSaved=   6.
 NSaved= 6 IEnMin= 6 EnMin= -74.9607232750791     IErMin= 6 ErrMin= 2.05D-07
 ErrMax= 2.05D-07  0.00D+00 EMaxC= 1.00D-01 BMatC= 4.08D-13 BMatP= 1.39D-08
 IDIUse=1 WtCom= 1.00D+00 WtEn= 0.00D+00
 Coeff-Com: -0.235D-07-0.153D-04 0.414D-03-0.305D-02 0.111D-01 0.992D+00
 Coeff:     -0.235D-07-0.153D-04 0.414D-03-0.305D-02 0.111D-01 0.992D+00
 Gap=     0.980 Goal=   None    Shift=    0.000
 RMSDP=2.78D-07 MaxDP=9.68D-07 DE=-4.36D-08 OVMax= 0.00D+00

 Cycle   7  Pass 1  IDiag  1:
 E= -74.9607232750801     Delta-E=       -0.000000000001 Rises=F Damp=F
 DIIS: error= 2.04D-10 at cycle   7 NSaved=   7.
 NSaved= 7 IEnMin= 7 EnMin= -74.9607232750801     IErMin= 7 ErrMin= 2.04D-10
 ErrMax= 2.04D-10  0.00D+00 EMaxC= 1.00D-01 BMatC= 3.55D-19 BMatP= 4.08D-13
 IDIUse=1 WtCom= 1.00D+00 WtEn= 0.00D+00
 Coeff-Com:  0.816D-10 0.115D-07 0.416D-06-0.491D-05 0.170D-04 0.158D-02
 Coeff-Com:  0.998D+00
 Coeff:      0.816D-10 0.115D-07 0.416D-06-0.491D-05 0.170D-04 0.158D-02
 Coeff:      0.998D+00
 Gap=     0.980 Goal=   None    Shift=    0.000
 RMSDP=2.46D-10 MaxDP=7.71D-10 DE=-1.01D-12 OVMax= 0.00D+00

 SCF Done:  E(RHF) =  -74.9607232751     A.U. after    7 cycles
            NFock=  7  Conv=0.25D-09     -V/T= 2.0051
 KE= 7.458406051794D+01 PE=-1.969263791825D+02 EE= 3.822441943917D+01
 Leave Link  502 at Wed Jun 12 20:28:58 2019, MaxMem=   100000000 cpu:               0.1 elap:               0.1
 (Enter /Users/hhratchian/.gaussian/gdv-current/gdv/l601.exe)
 Copying SCF densities to generalized density rwf, IOpCl= 0 IROHF=0.

 **********************************************************************

            Population analysis using the SCF density.

 **********************************************************************

 Orbital symmetries:
       Occupied  (A1) (A1) (B2) (A1) (B1)
       Virtual   (A1) (B2)
 The electronic state is 1-A1.
 Alpha  occ. eigenvalues --  -20.23454  -1.26079  -0.62393  -0.44051  -0.38697
 Alpha virt. eigenvalues --    0.59296   0.75410
     Molecular Orbital Coefficients:
                           1         2         3         4         5
                        (A1)--O   (A1)--O   (B2)--O   (A1)--O   (B1)--O
     Eigenvalues --   -20.23454  -1.26079  -0.62393  -0.44051  -0.38697
   1 1   O  1S          0.99412  -0.23325   0.00000  -0.09980   0.00000
   2        2S          0.02656   0.83539   0.00000   0.52066   0.00000
   3        2PX         0.00000   0.00000   0.00000   0.00000   1.00000
   4        2PY         0.00000   0.00000   0.59973   0.00000   0.00000
   5        2PZ        -0.00415  -0.12328   0.00000   0.79167   0.00000
   6 2   H  1S         -0.00597   0.15955   0.44237  -0.27319   0.00000
   7 3   H  1S         -0.00597   0.15955  -0.44237  -0.27319   0.00000
                           6         7
                        (A1)--V   (B2)--V
     Eigenvalues --     0.59296   0.75410
   1 1   O  1S         -0.13420   0.00000
   2        2S          0.89082   0.00000
   3        2PX         0.00000   0.00000
   4        2PY         0.00000   1.00296
   5        2PZ        -0.71418   0.00000
   6 2   H  1S         -0.80001  -0.83329
   7 3   H  1S         -0.80001   0.83329
     Density Matrix:
                           1         2         3         4         5
   1 1   O  1S          2.10530
   2        2S         -0.44083   1.93934
   3        2PX         0.00000   0.00000   2.00000
   4        2PY         0.00000   0.00000   0.00000   0.71935
   5        2PZ        -0.10877   0.61820   0.00000   0.00000   1.28392
   6 2   H  1S         -0.03177  -0.01823   0.00000   0.53061  -0.47185
   7 3   H  1S         -0.03177  -0.01823   0.00000  -0.53061  -0.47185
                           6         7
   6 2   H  1S          0.59164
   7 3   H  1S         -0.19114   0.59164
    Full Mulliken population analysis:
                           1         2         3         4         5
   1 1   O  1S          2.10530
   2        2S         -0.10435   1.93934
   3        2PX         0.00000   0.00000   2.00000
   4        2PY         0.00000   0.00000   0.00000   0.71935
   5        2PZ         0.00000   0.00000   0.00000   0.00000   1.28392
   6 2   H  1S         -0.00170  -0.00862   0.00000   0.17004   0.10692
   7 3   H  1S         -0.00170  -0.00862   0.00000   0.17004   0.10692
                           6         7
   6 2   H  1S          0.59164
   7 3   H  1S         -0.04451   0.59164
     Gross orbital populations:
                           1
   1 1   O  1S          1.99755
   2        2S          1.81775
   3        2PX         2.00000
   4        2PY         1.05943
   5        2PZ         1.49776
   6 2   H  1S          0.81376
   7 3   H  1S          0.81376
          Condensed to atoms (all electrons):
               1          2          3
     1  O    7.839228   0.266628   0.266628
     2  H    0.266628   0.591638  -0.044508
     3  H    0.266628  -0.044508   0.591638
 Mulliken charges:
               1
     1  O   -0.372485
     2  H    0.186243
     3  H    0.186243
 Sum of Mulliken charges =   0.00000
 Mulliken charges with hydrogens summed into heavy atoms:
               1
     1  O    0.000000
 Electronic spatial extent (au):  <R**2>=             17.8525
 Charge=              0.0000 electrons
 Dipole moment (field-independent basis, Debye):
    X=              0.0000    Y=              0.0000    Z=             -1.6890  Tot=              1.6890
 Quadrupole moment (field-independent basis, Debye-Ang):
   XX=             -6.0921   YY=             -4.1965   ZZ=             -5.4605
   XY=              0.0000   XZ=              0.0000   YZ=              0.0000
 Traceless Quadrupole moment (field-independent basis, Debye-Ang):
   XX=             -0.8424   YY=              1.0532   ZZ=             -0.2108
   XY=              0.0000   XZ=              0.0000   YZ=              0.0000
 Octapole moment (field-independent basis, Debye-Ang**2):
  XXX=              0.0000  YYY=              0.0000  ZZZ=             -0.1756  XYY=              0.0000
  XXY=              0.0000  XXZ=             -0.0059  XZZ=              0.0000  YZZ=              0.0000
  YYZ=             -0.5889  XYZ=              0.0000
 Hexadecapole moment (field-independent basis, Debye-Ang**3):
 XXXX=             -3.2294 YYYY=             -6.5599 ZZZZ=             -4.7128 XXXY=              0.0000
 XXXZ=              0.0000 YYYX=              0.0000 YYYZ=              0.0000 ZZZX=              0.0000
 ZZZY=              0.0000 XXYY=             -1.8138 XXZZ=             -1.3522 YYZZ=             -1.7002
 XXYZ=              0.0000 YYXZ=              0.0000 ZZXY=              0.0000
 N-N= 9.157175950298D+00 E-N=-1.969263791791D+02  KE= 7.458406051794D+01
 Symmetry A1   KE= 6.662722515293D+01
 Symmetry A2   KE= 0.000000000000D+00
 Symmetry B1   KE= 5.057462452019D+00
 Symmetry B2   KE= 2.899372912996D+00
 Orbital energies and kinetic energies (alpha):
                                 1                 2
   1         (A1)--O         -20.234537         28.655132
   2         (A1)--O          -1.260790          2.365846
   3         (B2)--O          -0.623930          1.449686
   4         (A1)--O          -0.440514          2.292635
   5         (B1)--O          -0.386968          2.528731
   6         (A1)--V           0.592963          2.735972
   7         (B2)--V           0.754103          2.822892
 Total kinetic energy from orbitals= 7.458406051794D+01
 No NMR shielding tensors so no spin-rotation constants.
 Leave Link  601 at Wed Jun 12 20:28:58 2019, MaxMem=   100000000 cpu:               0.1 elap:               0.1
 (Enter /Users/hhratchian/.gaussian/gdv-current/gdv/l9999.exe)

 Test job not archived.
 1\1\GINC-HRANTS-MACBOOK-PRO\SP\RHF\STO-3G\H2O1\HHRATCHIAN\12-Jun-2019\
 0\\#p test geom=modela hf pop=full output=matrix\\test002: HF/STO-3G c
 alculation of H2O.\\0,1\O\H,1,0.96\H,1,0.96,2,109.47122063\\Version=EM
 64M-GDVRevI.09\State=1-A1\HF=-74.9607233\RMSD=2.455e-10\Dipole=0.54257
 12,0.,0.3836558\Quadrupole=0.1565292,-0.6262971,0.4697679,0.,-0.442986
 5,0.\PG=C02V [C2(O1),SGV(H2)]\\@


 In the race for quality, there is no finish line.
                               -- David T. Kearns

 Writing WrtUnf unformatted file "test002.mat"
 Gaussian matrix elements                                         Version   2 NLab=11 Len12L=8 Len4L=8
 WrtUnf:  Coordinates translated and rotated.
 WrtUnf:  Coordinates match /B/ after translation and rotation.
 WrtI4R:  DoWrit=T IU=  31 LenA=           3
 WrtI4R:  DoWrit=T IU=  31 LenA=           9
 WrtI4R:  DoWrit=T IU=  31 LenA=           3
 Write SHELL TO ATOM MAP                   from file     0 offset           0 length                   4 to matrix element file.
 WrtI4R:  DoWrit=T IU=  31 LenA=        4000
 Write SHELL TYPES                         from file     0 offset           0 length                   4 to matrix element file.
 WrtI4R:  DoWrit=T IU=  31 LenA=        4000
 Write NUMBER OF PRIMITIVES PER SHELL      from file     0 offset           0 length                   4 to matrix element file.
 WrtI4R:  DoWrit=T IU=  31 LenA=        4000
 Write PRIMITIVE EXPONENTS                 from file     0 offset           0 length                  12 to matrix element file.
 WrtI4R:  DoWrit=T IU=  31 LenA=        4000
 Write CONTRACTION COEFFICIENTS            from file     0 offset           0 length                  12 to matrix element file.
 WrtI4R:  DoWrit=T IU=  31 LenA=        4000
 Write P(S=P) CONTRACTION COEFFICIENTS     from file     0 offset           0 length                  12 to matrix element file.
 WrtI4R:  DoWrit=T IU=  31 LenA=        4000
 Write COORDINATES OF EACH SHELL           from file     0 offset           0 length                  12 to matrix element file.
 WrtI4R:  DoWrit=T IU=  31 LenA=        4000
 Write BONDS PER ATOM                      from file     0 offset           0 length                   3 to matrix element file.
 WrtI4R:  DoWrit=T IU=  31 LenA=        4000
 Write BONDED ATOMS                        from file     0 offset           0 length                   4 to matrix element file.
 WrtI4R:  DoWrit=T IU=  31 LenA=        4000
 Write BOND TYPES                          from file     0 offset           0 length                   4 to matrix element file.
 WrtI4R:  DoWrit=T IU=  31 LenA=        4000
 Write GAUSSIAN SCALARS                    from file   501 offset           0 to matrix element file.
 Write INTEGER ISO                         from file     0 offset           0 length                   3 to matrix element file.
 WrtI4R:  DoWrit=T IU=  31 LenA=        4000
 Write INTEGER SPIN                        from file     0 offset           0 length                   3 to matrix element file.
 WrtI4R:  DoWrit=T IU=  31 LenA=        4000
 Write REAL ZEFFECTIVE                     from file     0 offset           0 length                   3 to matrix element file.
 WrtI4R:  DoWrit=T IU=  31 LenA=        4000
 Write REAL GFACTOR                        from file     0 offset           0 length                   3 to matrix element file.
 WrtI4R:  DoWrit=T IU=  31 LenA=        4000
 Write REAL ZNUCLEAR                       from file     0 offset           0 length                   3 to matrix element file.
 WrtI4R:  DoWrit=T IU=  31 LenA=        4000
 Write NUCLEAR GRADIENT                    from file 10584 offset           0 length                   9 to matrix element file.
 WrtI4R:  DoWrit=T IU=  31 LenA=        4000
 Array NUCLEAR FORCE CONSTANTS              on  file 10585 does not exist.
 Write ELECTRIC DIPOLE MOMENT              from file     0 offset           0 length                   3 to matrix element file.
 WrtI4R:  DoWrit=T IU=  31 LenA=        4000
 Write OVERLAP                             from file   514 offset           0 length                  28 to matrix element file.
 WrtI4R:  DoWrit=T IU=  31 LenA=        4000
 Write CORE HAMILTONIAN ALPHA              from file   515 offset           0 length                  28 to matrix element file.
 WrtI4R:  DoWrit=T IU=  31 LenA=        4000
 Write CORE HAMILTONIAN BETA               from file   515 offset          28 length                  28 to matrix element file.
 WrtI4R:  DoWrit=T IU=  31 LenA=        4000
 Write KINETIC ENERGY                      from file   516 offset           0 length                  28 to matrix element file.
 WrtI4R:  DoWrit=T IU=  31 LenA=        4000
 Write ORTHOGONAL BASIS                    from file   685 offset           0 length                  49 to matrix element file.
 WrtI4R:  DoWrit=T IU=  31 LenA=        4000
 Write DIPOLE INTEGRALS                    from file   518 offset           0 length                  84 to matrix element file.
 WrtI4R:  DoWrit=T IU=  31 LenA=        4000
 Write DIP VEL INTEGRALS                   from file   572 offset           0 length                  84 to matrix element file.
 WrtI4R:  DoWrit=T IU=  31 LenA=        4000
 Write R X DEL INTEGRALS                   from file   572 offset          84 length                  84 to matrix element file.
 WrtI4R:  DoWrit=T IU=  31 LenA=        4000
 Write ALPHA ORBITAL ENERGIES              from file     0 offset           0 length                   7 to matrix element file.
 WrtI4R:  DoWrit=T IU=  31 LenA=        4000
 Write ALPHA MO COEFFICIENTS               from file 10524 offset           0 length                  49 to matrix element file.
 WrtI4R:  DoWrit=T IU=  31 LenA=        4000
 Write ALPHA DENSITY MATRIX                from file 10528 offset           0 length                  28 to matrix element file.
 WrtI4R:  DoWrit=T IU=  31 LenA=        4000
 Write ALPHA SCF DENSITY MATRIX            from file 10528 offset           0 length                  28 to matrix element file.
 WrtI4R:  DoWrit=T IU=  31 LenA=        4000
 Write ALPHA FOCK MATRIX                   from file 10536 offset           0 length                  28 to matrix element file.
 WrtI4R:  DoWrit=T IU=  31 LenA=        4000
 No 2e integrals to process.
 Job cpu time:       0 days  0 hours  0 minutes  0.8 seconds.
 Elapsed time:       0 days  0 hours  0 minutes  0.9 seconds.
 File lengths (MBytes):  RWF=      6 Int=      0 D2E=      0 Chk=      1 Scr=      1
 Normal termination of Gaussian DV at Wed Jun 12 20:28:58 2019.
